! AWR Design Environment (17442) Wed Jun 28 13:17:59 2023
! Document = 'Symmetric Inductance'
! nPorts: 2, nXvals: 9376

# GHz S DB R 50
!Freq DBS11 AngS11 DBS21 AngS21 DBS12 AngS12 DBS22 AngS22 
8.2 -1.8800237 12.108869 -4.5424445 102.10926 -4.5424445 102.10926 -1.8800237 12.108869 
8.200016 -1.8800581 12.108376 -4.542381 102.10877 -4.542381 102.10877 -1.8800581 12.108376 
8.200032 -1.8800925 12.107882 -4.5423175 102.10827 -4.5423175 102.10827 -1.8800925 12.107882 
8.200048 -1.8801269 12.107389 -4.542254 102.10778 -4.542254 102.10778 -1.8801269 12.107389 
8.200064 -1.8801613 12.106895 -4.5421906 102.10728 -4.5421906 102.10728 -1.8801613 12.106895 
8.20008 -1.8801957 12.106401 -4.5421271 102.10679 -4.5421271 102.10679 -1.8801957 12.106401 
8.200096 -1.8802301 12.105908 -4.5420636 102.1063 -4.5420636 102.1063 -1.8802301 12.105908 
8.200112 -1.8802645 12.105414 -4.5420001 102.1058 -4.5420001 102.1058 -1.8802645 12.105414 
8.200128 -1.8802989 12.10492 -4.5419367 102.10531 -4.5419367 102.10531 -1.8802989 12.10492 
8.200144 -1.8803333 12.104427 -4.5418732 102.10482 -4.5418732 102.10482 -1.8803333 12.104427 
8.20016 -1.8803677 12.103933 -4.5418097 102.10432 -4.5418097 102.10432 -1.8803677 12.103933 
8.200176 -1.8804021 12.103439 -4.5417463 102.10383 -4.5417463 102.10383 -1.8804021 12.103439 
8.200192 -1.8804365 12.102945 -4.5416828 102.10334 -4.5416828 102.10334 -1.8804365 12.102945 
8.200208 -1.880471 12.102452 -4.5416193 102.10284 -4.5416193 102.10284 -1.880471 12.102452 
8.200224 -1.8805054 12.101958 -4.5415558 102.10235 -4.5415558 102.10235 -1.8805054 12.101958 
8.20024 -1.8805398 12.101464 -4.5414924 102.10186 -4.5414924 102.10186 -1.8805398 12.101464 
8.200256 -1.8805742 12.10097 -4.5414289 102.10136 -4.5414289 102.10136 -1.8805742 12.10097 
8.200272 -1.8806086 12.100476 -4.5413654 102.10087 -4.5413654 102.10087 -1.8806086 12.100476 
8.200288 -1.880643 12.099983 -4.541302 102.10037 -4.541302 102.10037 -1.880643 12.099983 
8.200304 -1.8806774 12.099489 -4.5412385 102.09988 -4.5412385 102.09988 -1.8806774 12.099489 
8.20032 -1.8807118 12.098995 -4.541175 102.09939 -4.541175 102.09939 -1.8807118 12.098995 
8.200336 -1.8807462 12.098501 -4.5411116 102.09889 -4.5411116 102.09889 -1.8807462 12.098501 
8.200352 -1.8807807 12.098007 -4.5410481 102.0984 -4.5410481 102.0984 -1.8807807 12.098007 
8.200368 -1.8808151 12.097513 -4.5409846 102.09791 -4.5409846 102.09791 -1.8808151 12.097513 
8.200384 -1.8808495 12.097019 -4.5409212 102.09741 -4.5409212 102.09741 -1.8808495 12.097019 
8.2004 -1.8808839 12.096525 -4.5408577 102.09692 -4.5408577 102.09692 -1.8808839 12.096525 
8.200416 -1.8809183 12.096031 -4.5407942 102.09642 -4.5407942 102.09642 -1.8809183 12.096031 
8.200432 -1.8809527 12.095537 -4.5407308 102.09593 -4.5407308 102.09593 -1.8809527 12.095537 
8.200448 -1.8809871 12.095043 -4.5406673 102.09544 -4.5406673 102.09544 -1.8809871 12.095043 
8.200464 -1.8810216 12.094549 -4.5406038 102.09494 -4.5406038 102.09494 -1.8810216 12.094549 
8.20048 -1.881056 12.094055 -4.5405404 102.09445 -4.5405404 102.09445 -1.881056 12.094055 
8.200496 -1.8810904 12.093561 -4.5404769 102.09396 -4.5404769 102.09396 -1.8810904 12.093561 
8.200512 -1.8811248 12.093067 -4.5404135 102.09346 -4.5404135 102.09346 -1.8811248 12.093067 
8.200528 -1.8811592 12.092573 -4.54035 102.09297 -4.54035 102.09297 -1.8811592 12.092573 
8.200544 -1.8811937 12.092079 -4.5402865 102.09247 -4.5402865 102.09247 -1.8811937 12.092079 
8.20056 -1.8812281 12.091585 -4.5402231 102.09198 -4.5402231 102.09198 -1.8812281 12.091585 
8.200576 -1.8812625 12.091091 -4.5401596 102.09149 -4.5401596 102.09149 -1.8812625 12.091091 
8.200592 -1.8812969 12.090597 -4.5400962 102.09099 -4.5400962 102.09099 -1.8812969 12.090597 
8.200608 -1.8813313 12.090102 -4.5400327 102.0905 -4.5400327 102.0905 -1.8813313 12.090102 
8.200624 -1.8813658 12.089608 -4.5399692 102.09 -4.5399692 102.09 -1.8813658 12.089608 
8.20064 -1.8814002 12.089114 -4.5399058 102.08951 -4.5399058 102.08951 -1.8814002 12.089114 
8.200656 -1.8814346 12.08862 -4.5398423 102.08902 -4.5398423 102.08902 -1.8814346 12.08862 
8.200672 -1.881469 12.088126 -4.5397789 102.08852 -4.5397789 102.08852 -1.881469 12.088126 
8.200688 -1.8815035 12.087631 -4.5397154 102.08803 -4.5397154 102.08803 -1.8815035 12.087631 
8.200704 -1.8815379 12.087137 -4.539652 102.08753 -4.539652 102.08753 -1.8815379 12.087137 
8.20072 -1.8815723 12.086643 -4.5395885 102.08704 -4.5395885 102.08704 -1.8815723 12.086643 
8.200736 -1.8816067 12.086149 -4.539525 102.08654 -4.539525 102.08654 -1.8816067 12.086149 
8.200752 -1.8816412 12.085654 -4.5394616 102.08605 -4.5394616 102.08605 -1.8816412 12.085654 
8.200768 -1.8816756 12.08516 -4.5393981 102.08556 -4.5393981 102.08556 -1.8816756 12.08516 
8.200784 -1.88171 12.084666 -4.5393347 102.08506 -4.5393347 102.08506 -1.88171 12.084666 
8.2008 -1.8817444 12.084171 -4.5392712 102.08457 -4.5392712 102.08457 -1.8817444 12.084171 
8.200816 -1.8817789 12.083677 -4.5392078 102.08407 -4.5392078 102.08407 -1.8817789 12.083677 
8.200832 -1.8818133 12.083182 -4.5391443 102.08358 -4.5391443 102.08358 -1.8818133 12.083182 
8.200848 -1.8818477 12.082688 -4.5390809 102.08309 -4.5390809 102.08309 -1.8818477 12.082688 
8.200864 -1.8818822 12.082194 -4.5390174 102.08259 -4.5390174 102.08259 -1.8818822 12.082194 
8.20088 -1.8819166 12.081699 -4.538954 102.0821 -4.538954 102.0821 -1.8819166 12.081699 
8.200896 -1.881951 12.081205 -4.5388905 102.0816 -4.5388905 102.0816 -1.881951 12.081205 
8.200912 -1.8819854 12.08071 -4.5388271 102.08111 -4.5388271 102.08111 -1.8819854 12.08071 
8.200928 -1.8820199 12.080216 -4.5387636 102.08061 -4.5387636 102.08061 -1.8820199 12.080216 
8.200944 -1.8820543 12.079721 -4.5387002 102.08012 -4.5387002 102.08012 -1.8820543 12.079721 
8.20096 -1.8820887 12.079227 -4.5386367 102.07963 -4.5386367 102.07963 -1.8820887 12.079227 
8.200976 -1.8821232 12.078732 -4.5385733 102.07913 -4.5385733 102.07913 -1.8821232 12.078732 
8.200992 -1.8821576 12.078238 -4.5385098 102.07864 -4.5385098 102.07864 -1.8821576 12.078238 
8.201008 -1.882192 12.077743 -4.5384464 102.07814 -4.5384464 102.07814 -1.882192 12.077743 
8.201024 -1.8822265 12.077249 -4.5383829 102.07765 -4.5383829 102.07765 -1.8822265 12.077249 
8.20104 -1.8822609 12.076754 -4.5383195 102.07715 -4.5383195 102.07715 -1.8822609 12.076754 
8.201056 -1.8822953 12.076259 -4.5382561 102.07666 -4.5382561 102.07666 -1.8822953 12.076259 
8.201072 -1.8823298 12.075765 -4.5381926 102.07616 -4.5381926 102.07616 -1.8823298 12.075765 
8.201088 -1.8823642 12.07527 -4.5381292 102.07567 -4.5381292 102.07567 -1.8823642 12.07527 
8.201104 -1.8823987 12.074775 -4.5380657 102.07518 -4.5380657 102.07518 -1.8823987 12.074775 
8.20112 -1.8824331 12.074281 -4.5380023 102.07468 -4.5380023 102.07468 -1.8824331 12.074281 
8.201136 -1.8824675 12.073786 -4.5379388 102.07419 -4.5379388 102.07419 -1.8824675 12.073786 
8.201152 -1.882502 12.073291 -4.5378754 102.07369 -4.5378754 102.07369 -1.882502 12.073291 
8.201168 -1.8825364 12.072797 -4.537812 102.0732 -4.537812 102.0732 -1.8825364 12.072797 
8.201184 -1.8825709 12.072302 -4.5377485 102.0727 -4.5377485 102.0727 -1.8825709 12.072302 
8.2012 -1.8826053 12.071807 -4.5376851 102.07221 -4.5376851 102.07221 -1.8826053 12.071807 
8.201216 -1.8826397 12.071312 -4.5376216 102.07171 -4.5376216 102.07171 -1.8826397 12.071312 
8.201232 -1.8826742 12.070817 -4.5375582 102.07122 -4.5375582 102.07122 -1.8826742 12.070817 
8.201248 -1.8827086 12.070323 -4.5374948 102.07072 -4.5374948 102.07072 -1.8827086 12.070323 
8.201264 -1.8827431 12.069828 -4.5374313 102.07023 -4.5374313 102.07023 -1.8827431 12.069828 
8.20128 -1.8827775 12.069333 -4.5373679 102.06973 -4.5373679 102.06973 -1.8827775 12.069333 
8.201296 -1.8828119 12.068838 -4.5373045 102.06924 -4.5373045 102.06924 -1.8828119 12.068838 
8.201312 -1.8828464 12.068343 -4.537241 102.06874 -4.537241 102.06874 -1.8828464 12.068343 
8.201328 -1.8828808 12.067848 -4.5371776 102.06825 -4.5371776 102.06825 -1.8828808 12.067848 
8.201344 -1.8829153 12.067353 -4.5371142 102.06776 -4.5371142 102.06776 -1.8829153 12.067353 
8.20136 -1.8829497 12.066859 -4.5370507 102.06726 -4.5370507 102.06726 -1.8829497 12.066859 
8.201376 -1.8829842 12.066364 -4.5369873 102.06677 -4.5369873 102.06677 -1.8829842 12.066364 
8.201392 -1.8830186 12.065869 -4.5369239 102.06627 -4.5369239 102.06627 -1.8830186 12.065869 
8.201408 -1.8830531 12.065374 -4.5368604 102.06578 -4.5368604 102.06578 -1.8830531 12.065374 
8.201424 -1.8830875 12.064879 -4.536797 102.06528 -4.536797 102.06528 -1.8830875 12.064879 
8.20144 -1.883122 12.064384 -4.5367336 102.06479 -4.5367336 102.06479 -1.883122 12.064384 
8.201456 -1.8831564 12.063889 -4.5366701 102.06429 -4.5366701 102.06429 -1.8831564 12.063889 
8.201472 -1.8831908 12.063394 -4.5366067 102.0638 -4.5366067 102.0638 -1.8831908 12.063394 
8.201488 -1.8832253 12.062899 -4.5365433 102.0633 -4.5365433 102.0633 -1.8832253 12.062899 
8.201504 -1.8832597 12.062404 -4.5364798 102.06281 -4.5364798 102.06281 -1.8832597 12.062404 
8.20152 -1.8832942 12.061908 -4.5364164 102.06231 -4.5364164 102.06231 -1.8832942 12.061908 
8.201536 -1.8833286 12.061413 -4.536353 102.06182 -4.536353 102.06182 -1.8833286 12.061413 
8.201552 -1.8833631 12.060918 -4.5362896 102.06132 -4.5362896 102.06132 -1.8833631 12.060918 
8.201568 -1.8833975 12.060423 -4.5362261 102.06083 -4.5362261 102.06083 -1.8833975 12.060423 
8.201584 -1.883432 12.059928 -4.5361627 102.06033 -4.5361627 102.06033 -1.883432 12.059928 
8.2016 -1.8834665 12.059433 -4.5360993 102.05984 -4.5360993 102.05984 -1.8834665 12.059433 
8.201616 -1.8835009 12.058938 -4.5360359 102.05934 -4.5360359 102.05934 -1.8835009 12.058938 
8.201632 -1.8835354 12.058442 -4.5359724 102.05885 -4.5359724 102.05885 -1.8835354 12.058442 
8.201648 -1.8835698 12.057947 -4.535909 102.05835 -4.535909 102.05835 -1.8835698 12.057947 
8.201664 -1.8836043 12.057452 -4.5358456 102.05786 -4.5358456 102.05786 -1.8836043 12.057452 
8.20168 -1.8836387 12.056957 -4.5357822 102.05736 -4.5357822 102.05736 -1.8836387 12.056957 
8.201696 -1.8836732 12.056461 -4.5357187 102.05687 -4.5357187 102.05687 -1.8836732 12.056461 
8.201712 -1.8837076 12.055966 -4.5356553 102.05637 -4.5356553 102.05637 -1.8837076 12.055966 
8.201728 -1.8837421 12.055471 -4.5355919 102.05588 -4.5355919 102.05588 -1.8837421 12.055471 
8.201744 -1.8837765 12.054976 -4.5355285 102.05538 -4.5355285 102.05538 -1.8837765 12.054976 
8.20176 -1.883811 12.05448 -4.5354651 102.05489 -4.5354651 102.05489 -1.883811 12.05448 
8.201776 -1.8838455 12.053985 -4.5354016 102.05439 -4.5354016 102.05439 -1.8838455 12.053985 
8.201792 -1.8838799 12.053489 -4.5353382 102.0539 -4.5353382 102.0539 -1.8838799 12.053489 
8.201808 -1.8839144 12.052994 -4.5352748 102.0534 -4.5352748 102.0534 -1.8839144 12.052994 
8.201824 -1.8839488 12.052499 -4.5352114 102.05291 -4.5352114 102.05291 -1.8839488 12.052499 
8.20184 -1.8839833 12.052003 -4.535148 102.05241 -4.535148 102.05241 -1.8839833 12.052003 
8.201856 -1.8840178 12.051508 -4.5350846 102.05191 -4.5350846 102.05191 -1.8840178 12.051508 
8.201872 -1.8840522 12.051012 -4.5350211 102.05142 -4.5350211 102.05142 -1.8840522 12.051012 
8.201888 -1.8840867 12.050517 -4.5349577 102.05092 -4.5349577 102.05092 -1.8840867 12.050517 
8.201904 -1.8841211 12.050021 -4.5348943 102.05043 -4.5348943 102.05043 -1.8841211 12.050021 
8.20192 -1.8841556 12.049526 -4.5348309 102.04993 -4.5348309 102.04993 -1.8841556 12.049526 
8.201936 -1.8841901 12.04903 -4.5347675 102.04944 -4.5347675 102.04944 -1.8841901 12.04903 
8.201952 -1.8842245 12.048535 -4.5347041 102.04894 -4.5347041 102.04894 -1.8842245 12.048535 
8.201968 -1.884259 12.048039 -4.5346407 102.04845 -4.5346407 102.04845 -1.884259 12.048039 
8.201984 -1.8842935 12.047544 -4.5345772 102.04795 -4.5345772 102.04795 -1.8842935 12.047544 
8.202 -1.8843279 12.047048 -4.5345138 102.04746 -4.5345138 102.04746 -1.8843279 12.047048 
8.202016 -1.8843624 12.046553 -4.5344504 102.04696 -4.5344504 102.04696 -1.8843624 12.046553 
8.202032 -1.8843968 12.046057 -4.534387 102.04647 -4.534387 102.04647 -1.8843968 12.046057 
8.202048 -1.8844313 12.045561 -4.5343236 102.04597 -4.5343236 102.04597 -1.8844313 12.045561 
8.202064 -1.8844658 12.045066 -4.5342602 102.04547 -4.5342602 102.04547 -1.8844658 12.045066 
8.20208 -1.8845002 12.04457 -4.5341968 102.04498 -4.5341968 102.04498 -1.8845002 12.04457 
8.202096 -1.8845347 12.044074 -4.5341334 102.04448 -4.5341334 102.04448 -1.8845347 12.044074 
8.202112 -1.8845692 12.043579 -4.53407 102.04399 -4.53407 102.04399 -1.8845692 12.043579 
8.202128 -1.8846036 12.043083 -4.5340066 102.04349 -4.5340066 102.04349 -1.8846036 12.043083 
8.202144 -1.8846381 12.042587 -4.5339432 102.043 -4.5339432 102.043 -1.8846381 12.042587 
8.20216 -1.8846726 12.042092 -4.5338798 102.0425 -4.5338798 102.0425 -1.8846726 12.042092 
8.202176 -1.8847071 12.041596 -4.5338163 102.04201 -4.5338163 102.04201 -1.8847071 12.041596 
8.202192 -1.8847415 12.0411 -4.5337529 102.04151 -4.5337529 102.04151 -1.8847415 12.0411 
8.202208 -1.884776 12.040604 -4.5336895 102.04101 -4.5336895 102.04101 -1.884776 12.040604 
8.202224 -1.8848105 12.040108 -4.5336261 102.04052 -4.5336261 102.04052 -1.8848105 12.040108 
8.20224 -1.8848449 12.039613 -4.5335627 102.04002 -4.5335627 102.04002 -1.8848449 12.039613 
8.202256 -1.8848794 12.039117 -4.5334993 102.03953 -4.5334993 102.03953 -1.8848794 12.039117 
8.202272 -1.8849139 12.038621 -4.5334359 102.03903 -4.5334359 102.03903 -1.8849139 12.038621 
8.202288 -1.8849484 12.038125 -4.5333725 102.03854 -4.5333725 102.03854 -1.8849484 12.038125 
8.202304 -1.8849828 12.037629 -4.5333091 102.03804 -4.5333091 102.03804 -1.8849828 12.037629 
8.20232 -1.8850173 12.037133 -4.5332457 102.03754 -4.5332457 102.03754 -1.8850173 12.037133 
8.202336 -1.8850518 12.036637 -4.5331823 102.03705 -4.5331823 102.03705 -1.8850518 12.036637 
8.202352 -1.8850862 12.036141 -4.5331189 102.03655 -4.5331189 102.03655 -1.8850862 12.036141 
8.202368 -1.8851207 12.035645 -4.5330555 102.03606 -4.5330555 102.03606 -1.8851207 12.035645 
8.202384 -1.8851552 12.035149 -4.5329921 102.03556 -4.5329921 102.03556 -1.8851552 12.035149 
8.2024 -1.8851897 12.034653 -4.5329287 102.03507 -4.5329287 102.03507 -1.8851897 12.034653 
8.202416 -1.8852241 12.034157 -4.5328654 102.03457 -4.5328654 102.03457 -1.8852241 12.034157 
8.202432 -1.8852586 12.033661 -4.532802 102.03407 -4.532802 102.03407 -1.8852586 12.033661 
8.202448 -1.8852931 12.033165 -4.5327386 102.03358 -4.5327386 102.03358 -1.8852931 12.033165 
8.202464 -1.8853276 12.032669 -4.5326752 102.03308 -4.5326752 102.03308 -1.8853276 12.032669 
8.20248 -1.8853621 12.032173 -4.5326118 102.03259 -4.5326118 102.03259 -1.8853621 12.032173 
8.202496 -1.8853965 12.031677 -4.5325484 102.03209 -4.5325484 102.03209 -1.8853965 12.031677 
8.202512 -1.885431 12.031181 -4.532485 102.03159 -4.532485 102.03159 -1.885431 12.031181 
8.202528 -1.8854655 12.030685 -4.5324216 102.0311 -4.5324216 102.0311 -1.8854655 12.030685 
8.202544 -1.8855 12.030189 -4.5323582 102.0306 -4.5323582 102.0306 -1.8855 12.030189 
8.20256 -1.8855345 12.029693 -4.5322948 102.03011 -4.5322948 102.03011 -1.8855345 12.029693 
8.202576 -1.8855689 12.029196 -4.5322314 102.02961 -4.5322314 102.02961 -1.8855689 12.029196 
8.202592 -1.8856034 12.0287 -4.532168 102.02911 -4.532168 102.02911 -1.8856034 12.0287 
8.202608 -1.8856379 12.028204 -4.5321047 102.02862 -4.5321047 102.02862 -1.8856379 12.028204 
8.202624 -1.8856724 12.027708 -4.5320413 102.02812 -4.5320413 102.02812 -1.8856724 12.027708 
8.20264 -1.8857069 12.027212 -4.5319779 102.02763 -4.5319779 102.02763 -1.8857069 12.027212 
8.202656 -1.8857413 12.026715 -4.5319145 102.02713 -4.5319145 102.02713 -1.8857413 12.026715 
8.202672 -1.8857758 12.026219 -4.5318511 102.02663 -4.5318511 102.02663 -1.8857758 12.026219 
8.202688 -1.8858103 12.025723 -4.5317877 102.02614 -4.5317877 102.02614 -1.8858103 12.025723 
8.202704 -1.8858448 12.025226 -4.5317243 102.02564 -4.5317243 102.02564 -1.8858448 12.025226 
8.20272 -1.8858793 12.02473 -4.531661 102.02515 -4.531661 102.02515 -1.8858793 12.02473 
8.202736 -1.8859138 12.024234 -4.5315976 102.02465 -4.5315976 102.02465 -1.8859138 12.024234 
8.202752 -1.8859483 12.023737 -4.5315342 102.02415 -4.5315342 102.02415 -1.8859483 12.023737 
8.202768 -1.8859827 12.023241 -4.5314708 102.02366 -4.5314708 102.02366 -1.8859827 12.023241 
8.202784 -1.8860172 12.022745 -4.5314074 102.02316 -4.5314074 102.02316 -1.8860172 12.022745 
8.2028 -1.8860517 12.022248 -4.531344 102.02266 -4.531344 102.02266 -1.8860517 12.022248 
8.202816 -1.8860862 12.021752 -4.5312807 102.02217 -4.5312807 102.02217 -1.8860862 12.021752 
8.202832 -1.8861207 12.021255 -4.5312173 102.02167 -4.5312173 102.02167 -1.8861207 12.021255 
8.202848 -1.8861552 12.020759 -4.5311539 102.02118 -4.5311539 102.02118 -1.8861552 12.020759 
8.202864 -1.8861897 12.020262 -4.5310905 102.02068 -4.5310905 102.02068 -1.8861897 12.020262 
8.20288 -1.8862242 12.019766 -4.5310271 102.02018 -4.5310271 102.02018 -1.8862242 12.019766 
8.202896 -1.8862586 12.019269 -4.5309638 102.01969 -4.5309638 102.01969 -1.8862586 12.019269 
8.202912 -1.8862931 12.018773 -4.5309004 102.01919 -4.5309004 102.01919 -1.8862931 12.018773 
8.202928 -1.8863276 12.018276 -4.530837 102.01869 -4.530837 102.01869 -1.8863276 12.018276 
8.202944 -1.8863621 12.01778 -4.5307736 102.0182 -4.5307736 102.0182 -1.8863621 12.01778 
8.20296 -1.8863966 12.017283 -4.5307103 102.0177 -4.5307103 102.0177 -1.8863966 12.017283 
8.202976 -1.8864311 12.016787 -4.5306469 102.01721 -4.5306469 102.01721 -1.8864311 12.016787 
8.202992 -1.8864656 12.01629 -4.5305835 102.01671 -4.5305835 102.01671 -1.8864656 12.01629 
8.203008 -1.8865001 12.015793 -4.5305202 102.01621 -4.5305202 102.01621 -1.8865001 12.015793 
8.203024 -1.8865346 12.015297 -4.5304568 102.01572 -4.5304568 102.01572 -1.8865346 12.015297 
8.20304 -1.8865691 12.0148 -4.5303934 102.01522 -4.5303934 102.01522 -1.8865691 12.0148 
8.203056 -1.8866036 12.014303 -4.53033 102.01472 -4.53033 102.01472 -1.8866036 12.014303 
8.203072 -1.8866381 12.013807 -4.5302667 102.01423 -4.5302667 102.01423 -1.8866381 12.013807 
8.203088 -1.8866726 12.01331 -4.5302033 102.01373 -4.5302033 102.01373 -1.8866726 12.01331 
8.203104 -1.886707 12.012813 -4.5301399 102.01323 -4.5301399 102.01323 -1.886707 12.012813 
8.20312 -1.8867415 12.012317 -4.5300766 102.01274 -4.5300766 102.01274 -1.8867415 12.012317 
8.203136 -1.886776 12.01182 -4.5300132 102.01224 -4.5300132 102.01224 -1.886776 12.01182 
8.203152 -1.8868105 12.011323 -4.5299498 102.01174 -4.5299498 102.01174 -1.8868105 12.011323 
8.203168 -1.886845 12.010826 -4.5298865 102.01125 -4.5298865 102.01125 -1.886845 12.010826 
8.203184 -1.8868795 12.010329 -4.5298231 102.01075 -4.5298231 102.01075 -1.8868795 12.010329 
8.2032 -1.886914 12.009833 -4.5297597 102.01025 -4.5297597 102.01025 -1.886914 12.009833 
8.203216 -1.8869485 12.009336 -4.5296964 102.00976 -4.5296964 102.00976 -1.8869485 12.009336 
8.203232 -1.886983 12.008839 -4.529633 102.00926 -4.529633 102.00926 -1.886983 12.008839 
8.203248 -1.8870175 12.008342 -4.5295696 102.00876 -4.5295696 102.00876 -1.8870175 12.008342 
8.203264 -1.887052 12.007845 -4.5295063 102.00827 -4.5295063 102.00827 -1.887052 12.007845 
8.20328 -1.8870865 12.007348 -4.5294429 102.00777 -4.5294429 102.00777 -1.8870865 12.007348 
8.203296 -1.887121 12.006851 -4.5293796 102.00727 -4.5293796 102.00727 -1.887121 12.006851 
8.203312 -1.8871555 12.006354 -4.5293162 102.00678 -4.5293162 102.00678 -1.8871555 12.006354 
8.203328 -1.88719 12.005857 -4.5292528 102.00628 -4.5292528 102.00628 -1.88719 12.005857 
8.203344 -1.8872245 12.00536 -4.5291895 102.00578 -4.5291895 102.00578 -1.8872245 12.00536 
8.20336 -1.887259 12.004863 -4.5291261 102.00529 -4.5291261 102.00529 -1.887259 12.004863 
8.203376 -1.8872935 12.004366 -4.5290628 102.00479 -4.5290628 102.00479 -1.8872935 12.004366 
8.203392 -1.887328 12.003869 -4.5289994 102.00429 -4.5289994 102.00429 -1.887328 12.003869 
8.203408 -1.8873625 12.003372 -4.5289361 102.0038 -4.5289361 102.0038 -1.8873625 12.003372 
8.203424 -1.887397 12.002875 -4.5288727 102.0033 -4.5288727 102.0033 -1.887397 12.002875 
8.20344 -1.8874315 12.002378 -4.5288093 102.0028 -4.5288093 102.0028 -1.8874315 12.002378 
8.203456 -1.8874661 12.001881 -4.528746 102.0023 -4.528746 102.0023 -1.8874661 12.001881 
8.203472 -1.8875006 12.001384 -4.5286826 102.00181 -4.5286826 102.00181 -1.8875006 12.001384 
8.203488 -1.8875351 12.000887 -4.5286193 102.00131 -4.5286193 102.00131 -1.8875351 12.000887 
8.203504 -1.8875696 12.00039 -4.5285559 102.00081 -4.5285559 102.00081 -1.8875696 12.00039 
8.20352 -1.8876041 11.999893 -4.5284926 102.00032 -4.5284926 102.00032 -1.8876041 11.999893 
8.203536 -1.8876386 11.999395 -4.5284292 101.99982 -4.5284292 101.99982 -1.8876386 11.999395 
8.203552 -1.8876731 11.998898 -4.5283659 101.99932 -4.5283659 101.99932 -1.8876731 11.998898 
8.203568 -1.8877076 11.998401 -4.5283025 101.99883 -4.5283025 101.99883 -1.8877076 11.998401 
8.203584 -1.8877421 11.997904 -4.5282392 101.99833 -4.5282392 101.99833 -1.8877421 11.997904 
8.2036 -1.8877766 11.997406 -4.5281758 101.99783 -4.5281758 101.99783 -1.8877766 11.997406 
8.203616 -1.8878111 11.996909 -4.5281125 101.99733 -4.5281125 101.99733 -1.8878111 11.996909 
8.203632 -1.8878456 11.996412 -4.5280491 101.99684 -4.5280491 101.99684 -1.8878456 11.996412 
8.203648 -1.8878801 11.995915 -4.5279858 101.99634 -4.5279858 101.99634 -1.8878801 11.995915 
8.203664 -1.8879146 11.995417 -4.5279225 101.99584 -4.5279225 101.99584 -1.8879146 11.995417 
8.20368 -1.8879492 11.99492 -4.5278591 101.99535 -4.5278591 101.99535 -1.8879492 11.99492 
8.203696 -1.8879837 11.994423 -4.5277958 101.99485 -4.5277958 101.99485 -1.8879837 11.994423 
8.203712 -1.8880182 11.993925 -4.5277324 101.99435 -4.5277324 101.99435 -1.8880182 11.993925 
8.203728 -1.8880527 11.993428 -4.5276691 101.99385 -4.5276691 101.99385 -1.8880527 11.993428 
8.203744 -1.8880872 11.99293 -4.5276057 101.99336 -4.5276057 101.99336 -1.8880872 11.99293 
8.20376 -1.8881217 11.992433 -4.5275424 101.99286 -4.5275424 101.99286 -1.8881217 11.992433 
8.203776 -1.8881562 11.991936 -4.5274791 101.99236 -4.5274791 101.99236 -1.8881562 11.991936 
8.203792 -1.8881907 11.991438 -4.5274157 101.99186 -4.5274157 101.99186 -1.8881907 11.991438 
8.203808 -1.8882253 11.990941 -4.5273524 101.99137 -4.5273524 101.99137 -1.8882253 11.990941 
8.203824 -1.8882598 11.990443 -4.527289 101.99087 -4.527289 101.99087 -1.8882598 11.990443 
8.20384 -1.8882943 11.989946 -4.5272257 101.99037 -4.5272257 101.99037 -1.8882943 11.989946 
8.203856 -1.8883288 11.989448 -4.5271624 101.98988 -4.5271624 101.98988 -1.8883288 11.989448 
8.203872 -1.8883633 11.988951 -4.527099 101.98938 -4.527099 101.98938 -1.8883633 11.988951 
8.203888 -1.8883978 11.988453 -4.5270357 101.98888 -4.5270357 101.98888 -1.8883978 11.988453 
8.203904 -1.8884324 11.987955 -4.5269724 101.98838 -4.5269724 101.98838 -1.8884324 11.987955 
8.20392 -1.8884669 11.987458 -4.526909 101.98789 -4.526909 101.98789 -1.8884669 11.987458 
8.203936 -1.8885014 11.98696 -4.5268457 101.98739 -4.5268457 101.98739 -1.8885014 11.98696 
8.203952 -1.8885359 11.986463 -4.5267824 101.98689 -4.5267824 101.98689 -1.8885359 11.986463 
8.203968 -1.8885704 11.985965 -4.526719 101.98639 -4.526719 101.98639 -1.8885704 11.985965 
8.203984 -1.8886049 11.985467 -4.5266557 101.9859 -4.5266557 101.9859 -1.8886049 11.985467 
8.204 -1.8886395 11.98497 -4.5265924 101.9854 -4.5265924 101.9854 -1.8886395 11.98497 
8.204016 -1.888674 11.984472 -4.526529 101.9849 -4.526529 101.9849 -1.888674 11.984472 
8.204032 -1.8887085 11.983974 -4.5264657 101.9844 -4.5264657 101.9844 -1.8887085 11.983974 
8.204048 -1.888743 11.983476 -4.5264024 101.98391 -4.5264024 101.98391 -1.888743 11.983476 
8.204064 -1.8887775 11.982979 -4.5263391 101.98341 -4.5263391 101.98341 -1.8887775 11.982979 
8.20408 -1.8888121 11.982481 -4.5262757 101.98291 -4.5262757 101.98291 -1.8888121 11.982481 
8.204096 -1.8888466 11.981983 -4.5262124 101.98241 -4.5262124 101.98241 -1.8888466 11.981983 
8.204112 -1.8888811 11.981485 -4.5261491 101.98192 -4.5261491 101.98192 -1.8888811 11.981485 
8.204128 -1.8889156 11.980988 -4.5260858 101.98142 -4.5260858 101.98142 -1.8889156 11.980988 
8.204144 -1.8889501 11.98049 -4.5260224 101.98092 -4.5260224 101.98092 -1.8889501 11.98049 
8.20416 -1.8889847 11.979992 -4.5259591 101.98042 -4.5259591 101.98042 -1.8889847 11.979992 
8.204176 -1.8890192 11.979494 -4.5258958 101.97992 -4.5258958 101.97992 -1.8890192 11.979494 
8.204192 -1.8890537 11.978996 -4.5258325 101.97943 -4.5258325 101.97943 -1.8890537 11.978996 
8.204208 -1.8890882 11.978498 -4.5257691 101.97893 -4.5257691 101.97893 -1.8890882 11.978498 
8.204224 -1.8891228 11.978 -4.5257058 101.97843 -4.5257058 101.97843 -1.8891228 11.978 
8.20424 -1.8891573 11.977502 -4.5256425 101.97793 -4.5256425 101.97793 -1.8891573 11.977502 
8.204256 -1.8891918 11.977004 -4.5255792 101.97744 -4.5255792 101.97744 -1.8891918 11.977004 
8.204272 -1.8892263 11.976506 -4.5255159 101.97694 -4.5255159 101.97694 -1.8892263 11.976506 
8.204288 -1.8892609 11.976008 -4.5254526 101.97644 -4.5254526 101.97644 -1.8892609 11.976008 
8.204304 -1.8892954 11.97551 -4.5253892 101.97594 -4.5253892 101.97594 -1.8892954 11.97551 
8.20432 -1.8893299 11.975012 -4.5253259 101.97544 -4.5253259 101.97544 -1.8893299 11.975012 
8.204336 -1.8893644 11.974514 -4.5252626 101.97495 -4.5252626 101.97495 -1.8893644 11.974514 
8.204352 -1.889399 11.974016 -4.5251993 101.97445 -4.5251993 101.97445 -1.889399 11.974016 
8.204368 -1.8894335 11.973518 -4.525136 101.97395 -4.525136 101.97395 -1.8894335 11.973518 
8.204384 -1.889468 11.97302 -4.5250727 101.97345 -4.5250727 101.97345 -1.889468 11.97302 
8.2044 -1.8895026 11.972522 -4.5250094 101.97296 -4.5250094 101.97296 -1.8895026 11.972522 
8.204416 -1.8895371 11.972024 -4.524946 101.97246 -4.524946 101.97246 -1.8895371 11.972024 
8.204432 -1.8895716 11.971526 -4.5248827 101.97196 -4.5248827 101.97196 -1.8895716 11.971526 
8.204448 -1.8896061 11.971028 -4.5248194 101.97146 -4.5248194 101.97146 -1.8896061 11.971028 
8.204464 -1.8896407 11.970529 -4.5247561 101.97096 -4.5247561 101.97096 -1.8896407 11.970529 
8.20448 -1.8896752 11.970031 -4.5246928 101.97047 -4.5246928 101.97047 -1.8896752 11.970031 
8.204496 -1.8897097 11.969533 -4.5246295 101.96997 -4.5246295 101.96997 -1.8897097 11.969533 
8.204512 -1.8897443 11.969035 -4.5245662 101.96947 -4.5245662 101.96947 -1.8897443 11.969035 
8.204528 -1.8897788 11.968537 -4.5245029 101.96897 -4.5245029 101.96897 -1.8897788 11.968537 
8.204544 -1.8898133 11.968038 -4.5244396 101.96847 -4.5244396 101.96847 -1.8898133 11.968038 
8.20456 -1.8898479 11.96754 -4.5243763 101.96798 -4.5243763 101.96798 -1.8898479 11.96754 
8.204576 -1.8898824 11.967042 -4.524313 101.96748 -4.524313 101.96748 -1.8898824 11.967042 
8.204592 -1.8899169 11.966543 -4.5242497 101.96698 -4.5242497 101.96698 -1.8899169 11.966543 
8.204608 -1.8899515 11.966045 -4.5241864 101.96648 -4.5241864 101.96648 -1.8899515 11.966045 
8.204624 -1.889986 11.965547 -4.5241231 101.96598 -4.5241231 101.96598 -1.889986 11.965547 
8.20464 -1.8900205 11.965048 -4.5240598 101.96548 -4.5240598 101.96548 -1.8900205 11.965048 
8.204656 -1.8900551 11.96455 -4.5239965 101.96499 -4.5239965 101.96499 -1.8900551 11.96455 
8.204672 -1.8900896 11.964052 -4.5239332 101.96449 -4.5239332 101.96449 -1.8900896 11.964052 
8.204688 -1.8901241 11.963553 -4.5238699 101.96399 -4.5238699 101.96399 -1.8901241 11.963553 
8.204704 -1.8901587 11.963055 -4.5238066 101.96349 -4.5238066 101.96349 -1.8901587 11.963055 
8.20472 -1.8901932 11.962556 -4.5237433 101.96299 -4.5237433 101.96299 -1.8901932 11.962556 
8.204736 -1.8902277 11.962058 -4.52368 101.96249 -4.52368 101.96249 -1.8902277 11.962058 
8.204752 -1.8902623 11.961559 -4.5236167 101.962 -4.5236167 101.962 -1.8902623 11.961559 
8.204768 -1.8902968 11.961061 -4.5235534 101.9615 -4.5235534 101.9615 -1.8902968 11.961061 
8.204784 -1.8903314 11.960562 -4.5234901 101.961 -4.5234901 101.961 -1.8903314 11.960562 
8.2048 -1.8903659 11.960064 -4.5234268 101.9605 -4.5234268 101.9605 -1.8903659 11.960064 
8.204816 -1.8904004 11.959565 -4.5233635 101.96 -4.5233635 101.96 -1.8904004 11.959565 
8.204832 -1.890435 11.959067 -4.5233002 101.9595 -4.5233002 101.9595 -1.890435 11.959067 
8.204848 -1.8904695 11.958568 -4.5232369 101.95901 -4.5232369 101.95901 -1.8904695 11.958568 
8.204864 -1.890504 11.958069 -4.5231736 101.95851 -4.5231736 101.95851 -1.890504 11.958069 
8.20488 -1.8905386 11.957571 -4.5231103 101.95801 -4.5231103 101.95801 -1.8905386 11.957571 
8.204896 -1.8905731 11.957072 -4.523047 101.95751 -4.523047 101.95751 -1.8905731 11.957072 
8.204912 -1.8906077 11.956573 -4.5229838 101.95701 -4.5229838 101.95701 -1.8906077 11.956573 
8.204928 -1.8906422 11.956075 -4.5229205 101.95651 -4.5229205 101.95651 -1.8906422 11.956075 
8.204944 -1.8906767 11.955576 -4.5228572 101.95602 -4.5228572 101.95602 -1.8906767 11.955576 
8.20496 -1.8907113 11.955077 -4.5227939 101.95552 -4.5227939 101.95552 -1.8907113 11.955077 
8.204976 -1.8907458 11.954579 -4.5227306 101.95502 -4.5227306 101.95502 -1.8907458 11.954579 
8.204992 -1.8907804 11.95408 -4.5226673 101.95452 -4.5226673 101.95452 -1.8907804 11.95408 
8.205008 -1.8908149 11.953581 -4.522604 101.95402 -4.522604 101.95402 -1.8908149 11.953581 
8.205024 -1.8908495 11.953082 -4.5225408 101.95352 -4.5225408 101.95352 -1.8908495 11.953082 
8.20504 -1.890884 11.952583 -4.5224775 101.95302 -4.5224775 101.95302 -1.890884 11.952583 
8.205056 -1.8909186 11.952085 -4.5224142 101.95253 -4.5224142 101.95253 -1.8909186 11.952085 